
  ___ ___ ___ _ _ _  
 |   |   |_  | | | | 
 | | | | | . | | | | 
 |__ |  _|___|_____|  0.11.0.13004
 |___|_|             

User:  ec2-user@ip-172-31-23-111
Date:  Wed Sep 30 12:17:25 2015
Arch:  x86_64
Pid:   5696
gpaw:  /usr/lib64/python2.6/site-packages/gpaw
_gpaw: /usr/lib64/openmpi/bin/gpaw-python_openmpi
ase:   /usr/lib/python2.6/site-packages/ase (version 3.9.1.4567)
numpy: /usr/lib64/python2.6/site-packages/numpy (version 1.4.1)
scipy: /usr/lib64/python2.6/site-packages/scipy (version 0.7.2)
units: Angstrom and eV
cores: 32
**NOTE**: please start using occupations=FermiDirac(width).

Memory estimate
---------------
Process memory now: 35.19 MiB
Calculator  769.94 MiB
    Density  26.73 MiB
        Arrays  8.71 MiB
        Localized functions  14.67 MiB
        Mixer  3.35 MiB
    Hamiltonian  13.26 MiB
        Arrays  5.69 MiB
        XC  0.00 MiB
        Poisson  6.51 MiB
        vbar  1.05 MiB
    Wavefunctions  729.95 MiB
        Arrays psit_nG  353.72 MiB
        Eigensolver  1.69 MiB
        Projections  1.48 MiB
        Projectors  1.26 MiB
        Overlap op  371.80 MiB

Positions:
  0 O    -0.0690    0.8240   -1.2950
  1 H     0.7860    0.9430   -0.7520
  2 H    -0.4140   -0.0010   -0.8650
  3 O    -0.2820   -0.6740   -3.8220
  4 H     0.0180   -0.1470   -4.6240
  5 H    -0.1130   -0.0800   -3.0340
  6 O     2.2530    1.2610    0.1510
  7 H     2.6060    0.6380   -0.5390
  8 H     2.4550    0.7900    1.0190
  9 O     3.1060   -0.2760   -1.7950
 10 H     2.9140    0.4590   -2.3860
 11 H     2.4470   -1.0530   -1.9190
 12 O     6.2570   -0.6250   -0.6260
 13 H     7.1070   -1.0020   -0.3170
 14 H     5.5260   -1.1290   -0.1310
 15 O     5.4510   -1.2610   -2.9370
 16 H     4.5850   -0.9570   -2.5030
 17 H     6.0790   -0.9190   -2.2000
 18 O    -0.5150    3.6890    0.4820
 19 H    -0.2180    3.0200   -0.1890
 20 H     0.0460    3.5680    1.3820
 21 O    -0.2050    2.6400   -3.3370
 22 H    -1.0830    2.5760   -3.7710
 23 H    -0.2130    1.8850   -2.6800
 24 O     0.1320    6.3010   -0.2780
 25 H     1.1040    6.3660   -0.0680
 26 H    -0.1480    5.3630   -0.1120
 27 O    -0.5050    6.6800   -3.2850
 28 H    -0.6740    7.6770   -3.4470
 29 H    -0.9650    6.2780   -2.5170
 30 O     4.0630    3.3420   -0.4740
 31 H     4.9500    2.9120   -0.6630
 32 H     3.4840    2.6190   -0.1250
 33 O     2.5750    2.4040   -3.1700
 34 H     1.6940    2.8410   -3.2960
 35 H     3.0490    2.9560   -2.5030
 36 O     6.6660    2.0300   -0.8150
 37 H     7.4760    2.2770   -0.3160
 38 H     6.4730    1.0640   -0.6510
 39 O     6.8600    2.5910   -3.5840
 40 H     6.9280    3.5300   -3.1760
 41 H     6.9780    2.0970   -2.7540
 42 O     2.9310    6.0220   -0.2430
 43 H     3.7320    6.5620   -0.0040
 44 H     3.2260    5.1150   -0.4040
 45 O     2.2910    7.1400   -2.4550
 46 H     1.3170    6.9370   -2.5320
 47 H     2.5860    6.5740   -1.6690
 48 O     6.8430    5.4600    1.0650
 49 H     7.8030    5.2900    0.8520
 50 H     6.7270    5.4240    2.0620
 51 O     6.8960    4.7840   -2.1300
 52 H     6.1910    5.2380   -2.7020
 53 H     6.4630    4.6650   -1.2590
 54 O     0.3980    0.6910    4.0980
 55 H     0.0470    1.5670    3.8070
 56 H     1.2680    0.4900    3.6320
 57 O     2.6870    0.2720    2.6410
 58 H     3.0780    1.1260    3.0270
 59 H     3.3760   -0.5010    2.7930
 60 O     6.0020   -0.5250    4.0020
 61 H     6.1520    0.4050    3.6600
 62 H     5.9870   -0.4470    4.9800
 63 O     0.6490    3.5410    2.8970
 64 H     0.2450    4.3010    3.4590
 65 H     1.6380    3.4570    3.0840
 66 O    -0.0750    5.6620    4.2330
 67 H    -0.1820    6.5120    3.7760
 68 H    -0.2410    5.9610    5.2120
 69 O     3.2430    2.5850    3.8780
 70 H     3.1100    2.3430    4.8170
 71 H     4.2620    2.7180    3.7800
 72 O     5.9420    2.5820    3.7120
 73 H     6.2500    3.5000    3.5660
 74 H     6.3790    2.5640    4.6360
 75 O     2.6860    5.6380    5.1640
 76 H     1.7810    5.4720    4.6980
 77 H     2.4540    6.2860    5.8870
 78 O     6.7440    5.2760    3.8260
 79 H     6.2380    5.6080    4.6320
 80 H     7.7070    5.2580    4.1100
 81 O     8.5730    8.4720    0.4070
 82 H     9.0690    7.6560    0.0670
 83 H     8.4720    8.4250    1.3970
 84 O     8.7580    8.2450    2.9890
 85 H     9.2940    9.0910    3.1720
 86 H     7.9060    8.5270    3.3730
 87 O     4.0060    7.7340    3.0210
 88 H     4.6850    8.2380    3.5470
 89 H     3.4680    7.1580    3.6240
 90 O     5.2810    6.0890    6.0350
 91 H     5.1310    7.0330    6.3780
 92 H     4.4280    5.7040    5.7200
 93 O     5.0670    7.3230    0.6620
 94 H     5.7850    6.6670    0.7030
 95 H     4.7180    7.2520    1.5850
 96 O    -0.0690    0.8240    8.5604
 97 H     0.7860    0.9430    9.1034
 98 H    -0.4140   -0.0010    8.9904
 99 O    -0.2820   -0.6740    6.0334
100 H     0.0180   -0.1470    5.2314
101 H    -0.1130   -0.0800    6.8214
102 O     2.2530    1.2610   10.0064
103 H     2.6060    0.6380    9.3164
104 H     2.4550    0.7900   10.8744
105 O     3.1060   -0.2760    8.0604
106 H     2.9140    0.4590    7.4694
107 H     2.4470   -1.0530    7.9364
108 O     6.2570   -0.6250    9.2294
109 H     7.1070   -1.0020    9.5384
110 H     5.5260   -1.1290    9.7244
111 O     5.4510   -1.2610    6.9184
112 H     4.5850   -0.9570    7.3524
113 H     6.0790   -0.9190    7.6554
114 O    -0.5150    3.6890   10.3374
115 H    -0.2180    3.0200    9.6664
116 H     0.0460    3.5680   11.2374
117 O    -0.2050    2.6400    6.5184
118 H    -1.0830    2.5760    6.0844
119 H    -0.2130    1.8850    7.1754
120 O     0.1320    6.3010    9.5774
121 H     1.1040    6.3660    9.7874
122 H    -0.1480    5.3630    9.7434
123 O    -0.5050    6.6800    6.5704
124 H    -0.6740    7.6770    6.4084
125 H    -0.9650    6.2780    7.3384
126 O     4.0630    3.3420    9.3814
127 H     4.9500    2.9120    9.1924
128 H     3.4840    2.6190    9.7304
129 O     2.5750    2.4040    6.6854
130 H     1.6940    2.8410    6.5594
131 H     3.0490    2.9560    7.3524
132 O     6.6660    2.0300    9.0404
133 H     7.4760    2.2770    9.5394
134 H     6.4730    1.0640    9.2044
135 O     6.8600    2.5910    6.2714
136 H     6.9280    3.5300    6.6794
137 H     6.9780    2.0970    7.1014
138 O     2.9310    6.0220    9.6124
139 H     3.7320    6.5620    9.8514
140 H     3.2260    5.1150    9.4514
141 O     2.2910    7.1400    7.4004
142 H     1.3170    6.9370    7.3234
143 H     2.5860    6.5740    8.1864
144 O     6.8430    5.4600   10.9204
145 H     7.8030    5.2900   10.7074
146 H     6.7270    5.4240   11.9174
147 O     6.8960    4.7840    7.7254
148 H     6.1910    5.2380    7.1534
149 H     6.4630    4.6650    8.5964
150 O     0.3980    0.6910   13.9534
151 H     0.0470    1.5670   13.6624
152 H     1.2680    0.4900   13.4874
153 O     2.6870    0.2720   12.4964
154 H     3.0780    1.1260   12.8824
155 H     3.3760   -0.5010   12.6484
156 O     6.0020   -0.5250   13.8574
157 H     6.1520    0.4050   13.5154
158 H     5.9870   -0.4470   14.8354
159 O     0.6490    3.5410   12.7524
160 H     0.2450    4.3010   13.3144
161 H     1.6380    3.4570   12.9394
162 O    -0.0750    5.6620   14.0884
163 H    -0.1820    6.5120   13.6314
164 H    -0.2410    5.9610   15.0674
165 O     3.2430    2.5850   13.7334
166 H     3.1100    2.3430   14.6724
167 H     4.2620    2.7180   13.6354
168 O     5.9420    2.5820   13.5674
169 H     6.2500    3.5000   13.4214
170 H     6.3790    2.5640   14.4914
171 O     2.6860    5.6380   15.0194
172 H     1.7810    5.4720   14.5534
173 H     2.4540    6.2860   15.7424
174 O     6.7440    5.2760   13.6814
175 H     6.2380    5.6080   14.4874
176 H     7.7070    5.2580   13.9654
177 O     8.5730    8.4720   10.2624
178 H     9.0690    7.6560    9.9224
179 H     8.4720    8.4250   11.2524
180 O     8.7580    8.2450   12.8444
181 H     9.2940    9.0910   13.0274
182 H     7.9060    8.5270   13.2284
183 O     4.0060    7.7340   12.8764
184 H     4.6850    8.2380   13.4024
185 H     3.4680    7.1580   13.4794
186 O     5.2810    6.0890   15.8904
187 H     5.1310    7.0330   16.2334
188 H     4.4280    5.7040   15.5754
189 O     5.0670    7.3230   10.5174
190 H     5.7850    6.6670   10.5584
191 H     4.7180    7.2520   11.4404
192 O    -0.0690   10.6794   -1.2950
193 H     0.7860   10.7984   -0.7520
194 H    -0.4140    9.8544   -0.8650
195 O    -0.2820    9.1814   -3.8220
196 H     0.0180    9.7084   -4.6240
197 H    -0.1130    9.7754   -3.0340
198 O     2.2530   11.1164    0.1510
199 H     2.6060   10.4934   -0.5390
200 H     2.4550   10.6454    1.0190
201 O     3.1060    9.5794   -1.7950
202 H     2.9140   10.3144   -2.3860
203 H     2.4470    8.8024   -1.9190
204 O     6.2570    9.2304   -0.6260
205 H     7.1070    8.8534   -0.3170
206 H     5.5260    8.7264   -0.1310
207 O     5.4510    8.5944   -2.9370
208 H     4.5850    8.8984   -2.5030
209 H     6.0790    8.9364   -2.2000
210 O    -0.5150   13.5444    0.4820
211 H    -0.2180   12.8754   -0.1890
212 H     0.0460   13.4234    1.3820
213 O    -0.2050   12.4954   -3.3370
214 H    -1.0830   12.4314   -3.7710
215 H    -0.2130   11.7404   -2.6800
216 O     0.1320   16.1564   -0.2780
217 H     1.1040   16.2214   -0.0680
218 H    -0.1480   15.2184   -0.1120
219 O    -0.5050   16.5354   -3.2850
220 H    -0.6740   17.5324   -3.4470
221 H    -0.9650   16.1334   -2.5170
222 O     4.0630   13.1974   -0.4740
223 H     4.9500   12.7674   -0.6630
224 H     3.4840   12.4744   -0.1250
225 O     2.5750   12.2594   -3.1700
226 H     1.6940   12.6964   -3.2960
227 H     3.0490   12.8114   -2.5030
228 O     6.6660   11.8854   -0.8150
229 H     7.4760   12.1324   -0.3160
230 H     6.4730   10.9194   -0.6510
231 O     6.8600   12.4464   -3.5840
232 H     6.9280   13.3854   -3.1760
233 H     6.9780   11.9524   -2.7540
234 O     2.9310   15.8774   -0.2430
235 H     3.7320   16.4174   -0.0040
236 H     3.2260   14.9704   -0.4040
237 O     2.2910   16.9954   -2.4550
238 H     1.3170   16.7924   -2.5320
239 H     2.5860   16.4294   -1.6690
240 O     6.8430   15.3154    1.0650
241 H     7.8030   15.1454    0.8520
242 H     6.7270   15.2794    2.0620
243 O     6.8960   14.6394   -2.1300
244 H     6.1910   15.0934   -2.7020
245 H     6.4630   14.5204   -1.2590
246 O     0.3980   10.5464    4.0980
247 H     0.0470   11.4224    3.8070
248 H     1.2680   10.3454    3.6320
249 O     2.6870   10.1274    2.6410
250 H     3.0780   10.9814    3.0270
251 H     3.3760    9.3544    2.7930
252 O     6.0020    9.3304    4.0020
253 H     6.1520   10.2604    3.6600
254 H     5.9870    9.4084    4.9800
255 O     0.6490   13.3964    2.8970
256 H     0.2450   14.1564    3.4590
257 H     1.6380   13.3124    3.0840
258 O    -0.0750   15.5174    4.2330
259 H    -0.1820   16.3674    3.7760
260 H    -0.2410   15.8164    5.2120
261 O     3.2430   12.4404    3.8780
262 H     3.1100   12.1984    4.8170
263 H     4.2620   12.5734    3.7800
264 O     5.9420   12.4374    3.7120
265 H     6.2500   13.3554    3.5660
266 H     6.3790   12.4194    4.6360
267 O     2.6860   15.4934    5.1640
268 H     1.7810   15.3274    4.6980
269 H     2.4540   16.1414    5.8870
270 O     6.7440   15.1314    3.8260
271 H     6.2380   15.4634    4.6320
272 H     7.7070   15.1134    4.1100
273 O     8.5730   18.3274    0.4070
274 H     9.0690   17.5114    0.0670
275 H     8.4720   18.2804    1.3970
276 O     8.7580   18.1004    2.9890
277 H     9.2940   18.9464    3.1720
278 H     7.9060   18.3824    3.3730
279 O     4.0060   17.5894    3.0210
280 H     4.6850   18.0934    3.5470
281 H     3.4680   17.0134    3.6240
282 O     5.2810   15.9444    6.0350
283 H     5.1310   16.8884    6.3780
284 H     4.4280   15.5594    5.7200
285 O     5.0670   17.1784    0.6620
286 H     5.7850   16.5224    0.7030
287 H     4.7180   17.1074    1.5850
288 O    -0.0690   10.6794    8.5604
289 H     0.7860   10.7984    9.1034
290 H    -0.4140    9.8544    8.9904
291 O    -0.2820    9.1814    6.0334
292 H     0.0180    9.7084    5.2314
293 H    -0.1130    9.7754    6.8214
294 O     2.2530   11.1164   10.0064
295 H     2.6060   10.4934    9.3164
296 H     2.4550   10.6454   10.8744
297 O     3.1060    9.5794    8.0604
298 H     2.9140   10.3144    7.4694
299 H     2.4470    8.8024    7.9364
300 O     6.2570    9.2304    9.2294
301 H     7.1070    8.8534    9.5384
302 H     5.5260    8.7264    9.7244
303 O     5.4510    8.5944    6.9184
304 H     4.5850    8.8984    7.3524
305 H     6.0790    8.9364    7.6554
306 O    -0.5150   13.5444   10.3374
307 H    -0.2180   12.8754    9.6664
308 H     0.0460   13.4234   11.2374
309 O    -0.2050   12.4954    6.5184
310 H    -1.0830   12.4314    6.0844
311 H    -0.2130   11.7404    7.1754
312 O     0.1320   16.1564    9.5774
313 H     1.1040   16.2214    9.7874
314 H    -0.1480   15.2184    9.7434
315 O    -0.5050   16.5354    6.5704
316 H    -0.6740   17.5324    6.4084
317 H    -0.9650   16.1334    7.3384
318 O     4.0630   13.1974    9.3814
319 H     4.9500   12.7674    9.1924
320 H     3.4840   12.4744    9.7304
321 O     2.5750   12.2594    6.6854
322 H     1.6940   12.6964    6.5594
323 H     3.0490   12.8114    7.3524
324 O     6.6660   11.8854    9.0404
325 H     7.4760   12.1324    9.5394
326 H     6.4730   10.9194    9.2044
327 O     6.8600   12.4464    6.2714
328 H     6.9280   13.3854    6.6794
329 H     6.9780   11.9524    7.1014
330 O     2.9310   15.8774    9.6124
331 H     3.7320   16.4174    9.8514
332 H     3.2260   14.9704    9.4514
333 O     2.2910   16.9954    7.4004
334 H     1.3170   16.7924    7.3234
335 H     2.5860   16.4294    8.1864
336 O     6.8430   15.3154   10.9204
337 H     7.8030   15.1454   10.7074
338 H     6.7270   15.2794   11.9174
339 O     6.8960   14.6394    7.7254
340 H     6.1910   15.0934    7.1534
341 H     6.4630   14.5204    8.5964
342 O     0.3980   10.5464   13.9534
343 H     0.0470   11.4224   13.6624
344 H     1.2680   10.3454   13.4874
345 O     2.6870   10.1274   12.4964
346 H     3.0780   10.9814   12.8824
347 H     3.3760    9.3544   12.6484
348 O     6.0020    9.3304   13.8574
349 H     6.1520   10.2604   13.5154
350 H     5.9870    9.4084   14.8354
351 O     0.6490   13.3964   12.7524
352 H     0.2450   14.1564   13.3144
353 H     1.6380   13.3124   12.9394
354 O    -0.0750   15.5174   14.0884
355 H    -0.1820   16.3674   13.6314
356 H    -0.2410   15.8164   15.0674
357 O     3.2430   12.4404   13.7334
358 H     3.1100   12.1984   14.6724
359 H     4.2620   12.5734   13.6354
360 O     5.9420   12.4374   13.5674
361 H     6.2500   13.3554   13.4214
362 H     6.3790   12.4194   14.4914
363 O     2.6860   15.4934   15.0194
364 H     1.7810   15.3274   14.5534
365 H     2.4540   16.1414   15.7424
366 O     6.7440   15.1314   13.6814
367 H     6.2380   15.4634   14.4874
368 H     7.7070   15.1134   13.9654
369 O     8.5730   18.3274   10.2624
370 H     9.0690   17.5114    9.9224
371 H     8.4720   18.2804   11.2524
372 O     8.7580   18.1004   12.8444
373 H     9.2940   18.9464   13.0274
374 H     7.9060   18.3824   13.2284
375 O     4.0060   17.5894   12.8764
376 H     4.6850   18.0934   13.4024
377 H     3.4680   17.0134   13.4794
378 O     5.2810   15.9444   15.8904
379 H     5.1310   16.8884   16.2334
380 H     4.4280   15.5594   15.5754
381 O     5.0670   17.1784   10.5174
382 H     5.7850   16.5224   10.5584
383 H     4.7180   17.1074   11.4404
384 O     9.7864    0.8240   -1.2950
385 H    10.6414    0.9430   -0.7520
386 H     9.4414   -0.0010   -0.8650
387 O     9.5734   -0.6740   -3.8220
388 H     9.8734   -0.1470   -4.6240
389 H     9.7424   -0.0800   -3.0340
390 O    12.1084    1.2610    0.1510
391 H    12.4614    0.6380   -0.5390
392 H    12.3104    0.7900    1.0190
393 O    12.9614   -0.2760   -1.7950
394 H    12.7694    0.4590   -2.3860
395 H    12.3024   -1.0530   -1.9190
396 O    16.1124   -0.6250   -0.6260
397 H    16.9624   -1.0020   -0.3170
398 H    15.3814   -1.1290   -0.1310
399 O    15.3064   -1.2610   -2.9370
400 H    14.4404   -0.9570   -2.5030
401 H    15.9344   -0.9190   -2.2000
402 O     9.3404    3.6890    0.4820
403 H     9.6374    3.0200   -0.1890
404 H     9.9014    3.5680    1.3820
405 O     9.6504    2.6400   -3.3370
406 H     8.7724    2.5760   -3.7710
407 H     9.6424    1.8850   -2.6800
408 O     9.9874    6.3010   -0.2780
409 H    10.9594    6.3660   -0.0680
410 H     9.7074    5.3630   -0.1120
411 O     9.3504    6.6800   -3.2850
412 H     9.1814    7.6770   -3.4470
413 H     8.8904    6.2780   -2.5170
414 O    13.9184    3.3420   -0.4740
415 H    14.8054    2.9120   -0.6630
416 H    13.3394    2.6190   -0.1250
417 O    12.4304    2.4040   -3.1700
418 H    11.5494    2.8410   -3.2960
419 H    12.9044    2.9560   -2.5030
420 O    16.5214    2.0300   -0.8150
421 H    17.3314    2.2770   -0.3160
422 H    16.3284    1.0640   -0.6510
423 O    16.7154    2.5910   -3.5840
424 H    16.7834    3.5300   -3.1760
425 H    16.8334    2.0970   -2.7540
426 O    12.7864    6.0220   -0.2430
427 H    13.5874    6.5620   -0.0040
428 H    13.0814    5.1150   -0.4040
429 O    12.1464    7.1400   -2.4550
430 H    11.1724    6.9370   -2.5320
431 H    12.4414    6.5740   -1.6690
432 O    16.6984    5.4600    1.0650
433 H    17.6584    5.2900    0.8520
434 H    16.5824    5.4240    2.0620
435 O    16.7514    4.7840   -2.1300
436 H    16.0464    5.2380   -2.7020
437 H    16.3184    4.6650   -1.2590
438 O    10.2534    0.6910    4.0980
439 H     9.9024    1.5670    3.8070
440 H    11.1234    0.4900    3.6320
441 O    12.5424    0.2720    2.6410
442 H    12.9334    1.1260    3.0270
443 H    13.2314   -0.5010    2.7930
444 O    15.8574   -0.5250    4.0020
445 H    16.0074    0.4050    3.6600
446 H    15.8424   -0.4470    4.9800
447 O    10.5044    3.5410    2.8970
448 H    10.1004    4.3010    3.4590
449 H    11.4934    3.4570    3.0840
450 O     9.7804    5.6620    4.2330
451 H     9.6734    6.5120    3.7760
452 H     9.6144    5.9610    5.2120
453 O    13.0984    2.5850    3.8780
454 H    12.9654    2.3430    4.8170
455 H    14.1174    2.7180    3.7800
456 O    15.7974    2.5820    3.7120
457 H    16.1054    3.5000    3.5660
458 H    16.2344    2.5640    4.6360
459 O    12.5414    5.6380    5.1640
460 H    11.6364    5.4720    4.6980
461 H    12.3094    6.2860    5.8870
462 O    16.5994    5.2760    3.8260
463 H    16.0934    5.6080    4.6320
464 H    17.5624    5.2580    4.1100
465 O    18.4284    8.4720    0.4070
466 H    18.9244    7.6560    0.0670
467 H    18.3274    8.4250    1.3970
468 O    18.6134    8.2450    2.9890
469 H    19.1494    9.0910    3.1720
470 H    17.7614    8.5270    3.3730
471 O    13.8614    7.7340    3.0210
472 H    14.5404    8.2380    3.5470
473 H    13.3234    7.1580    3.6240
474 O    15.1364    6.0890    6.0350
475 H    14.9864    7.0330    6.3780
476 H    14.2834    5.7040    5.7200
477 O    14.9224    7.3230    0.6620
478 H    15.6404    6.6670    0.7030
479 H    14.5734    7.2520    1.5850
480 O     9.7864    0.8240    8.5604
481 H    10.6414    0.9430    9.1034
482 H     9.4414   -0.0010    8.9904
483 O     9.5734   -0.6740    6.0334
484 H     9.8734   -0.1470    5.2314
485 H     9.7424   -0.0800    6.8214
486 O    12.1084    1.2610   10.0064
487 H    12.4614    0.6380    9.3164
488 H    12.3104    0.7900   10.8744
489 O    12.9614   -0.2760    8.0604
490 H    12.7694    0.4590    7.4694
491 H    12.3024   -1.0530    7.9364
492 O    16.1124   -0.6250    9.2294
493 H    16.9624   -1.0020    9.5384
494 H    15.3814   -1.1290    9.7244
495 O    15.3064   -1.2610    6.9184
496 H    14.4404   -0.9570    7.3524
497 H    15.9344   -0.9190    7.6554
498 O     9.3404    3.6890   10.3374
499 H     9.6374    3.0200    9.6664
500 H     9.9014    3.5680   11.2374
501 O     9.6504    2.6400    6.5184
502 H     8.7724    2.5760    6.0844
503 H     9.6424    1.8850    7.1754
504 O     9.9874    6.3010    9.5774
505 H    10.9594    6.3660    9.7874
506 H     9.7074    5.3630    9.7434
507 O     9.3504    6.6800    6.5704
508 H     9.1814    7.6770    6.4084
509 H     8.8904    6.2780    7.3384
510 O    13.9184    3.3420    9.3814
511 H    14.8054    2.9120    9.1924
512 H    13.3394    2.6190    9.7304
513 O    12.4304    2.4040    6.6854
514 H    11.5494    2.8410    6.5594
515 H    12.9044    2.9560    7.3524
516 O    16.5214    2.0300    9.0404
517 H    17.3314    2.2770    9.5394
518 H    16.3284    1.0640    9.2044
519 O    16.7154    2.5910    6.2714
520 H    16.7834    3.5300    6.6794
521 H    16.8334    2.0970    7.1014
522 O    12.7864    6.0220    9.6124
523 H    13.5874    6.5620    9.8514
524 H    13.0814    5.1150    9.4514
525 O    12.1464    7.1400    7.4004
526 H    11.1724    6.9370    7.3234
527 H    12.4414    6.5740    8.1864
528 O    16.6984    5.4600   10.9204
529 H    17.6584    5.2900   10.7074
530 H    16.5824    5.4240   11.9174
531 O    16.7514    4.7840    7.7254
532 H    16.0464    5.2380    7.1534
533 H    16.3184    4.6650    8.5964
534 O    10.2534    0.6910   13.9534
535 H     9.9024    1.5670   13.6624
536 H    11.1234    0.4900   13.4874
537 O    12.5424    0.2720   12.4964
538 H    12.9334    1.1260   12.8824
539 H    13.2314   -0.5010   12.6484
540 O    15.8574   -0.5250   13.8574
541 H    16.0074    0.4050   13.5154
542 H    15.8424   -0.4470   14.8354
543 O    10.5044    3.5410   12.7524
544 H    10.1004    4.3010   13.3144
545 H    11.4934    3.4570   12.9394
546 O     9.7804    5.6620   14.0884
547 H     9.6734    6.5120   13.6314
548 H     9.6144    5.9610   15.0674
549 O    13.0984    2.5850   13.7334
550 H    12.9654    2.3430   14.6724
551 H    14.1174    2.7180   13.6354
552 O    15.7974    2.5820   13.5674
553 H    16.1054    3.5000   13.4214
554 H    16.2344    2.5640   14.4914
555 O    12.5414    5.6380   15.0194
556 H    11.6364    5.4720   14.5534
557 H    12.3094    6.2860   15.7424
558 O    16.5994    5.2760   13.6814
559 H    16.0934    5.6080   14.4874
560 H    17.5624    5.2580   13.9654
561 O    18.4284    8.4720   10.2624
562 H    18.9244    7.6560    9.9224
563 H    18.3274    8.4250   11.2524
564 O    18.6134    8.2450   12.8444
565 H    19.1494    9.0910   13.0274
566 H    17.7614    8.5270   13.2284
567 O    13.8614    7.7340   12.8764
568 H    14.5404    8.2380   13.4024
569 H    13.3234    7.1580   13.4794
570 O    15.1364    6.0890   15.8904
571 H    14.9864    7.0330   16.2334
572 H    14.2834    5.7040   15.5754
573 O    14.9224    7.3230   10.5174
574 H    15.6404    6.6670   10.5584
575 H    14.5734    7.2520   11.4404
576 O     9.7864   10.6794   -1.2950
577 H    10.6414   10.7984   -0.7520
578 H     9.4414    9.8544   -0.8650
579 O     9.5734    9.1814   -3.8220
580 H     9.8734    9.7084   -4.6240
581 H     9.7424    9.7754   -3.0340
582 O    12.1084   11.1164    0.1510
583 H    12.4614   10.4934   -0.5390
584 H    12.3104   10.6454    1.0190
585 O    12.9614    9.5794   -1.7950
586 H    12.7694   10.3144   -2.3860
587 H    12.3024    8.8024   -1.9190
588 O    16.1124    9.2304   -0.6260
589 H    16.9624    8.8534   -0.3170
590 H    15.3814    8.7264   -0.1310
591 O    15.3064    8.5944   -2.9370
592 H    14.4404    8.8984   -2.5030
593 H    15.9344    8.9364   -2.2000
594 O     9.3404   13.5444    0.4820
595 H     9.6374   12.8754   -0.1890
596 H     9.9014   13.4234    1.3820
597 O     9.6504   12.4954   -3.3370
598 H     8.7724   12.4314   -3.7710
599 H     9.6424   11.7404   -2.6800
600 O     9.9874   16.1564   -0.2780
601 H    10.9594   16.2214   -0.0680
602 H     9.7074   15.2184   -0.1120
603 O     9.3504   16.5354   -3.2850
604 H     9.1814   17.5324   -3.4470
605 H     8.8904   16.1334   -2.5170
606 O    13.9184   13.1974   -0.4740
607 H    14.8054   12.7674   -0.6630
608 H    13.3394   12.4744   -0.1250
609 O    12.4304   12.2594   -3.1700
610 H    11.5494   12.6964   -3.2960
611 H    12.9044   12.8114   -2.5030
612 O    16.5214   11.8854   -0.8150
613 H    17.3314   12.1324   -0.3160
614 H    16.3284   10.9194   -0.6510
615 O    16.7154   12.4464   -3.5840
616 H    16.7834   13.3854   -3.1760
617 H    16.8334   11.9524   -2.7540
618 O    12.7864   15.8774   -0.2430
619 H    13.5874   16.4174   -0.0040
620 H    13.0814   14.9704   -0.4040
621 O    12.1464   16.9954   -2.4550
622 H    11.1724   16.7924   -2.5320
623 H    12.4414   16.4294   -1.6690
624 O    16.6984   15.3154    1.0650
625 H    17.6584   15.1454    0.8520
626 H    16.5824   15.2794    2.0620
627 O    16.7514   14.6394   -2.1300
628 H    16.0464   15.0934   -2.7020
629 H    16.3184   14.5204   -1.2590
630 O    10.2534   10.5464    4.0980
631 H     9.9024   11.4224    3.8070
632 H    11.1234   10.3454    3.6320
633 O    12.5424   10.1274    2.6410
634 H    12.9334   10.9814    3.0270
635 H    13.2314    9.3544    2.7930
636 O    15.8574    9.3304    4.0020
637 H    16.0074   10.2604    3.6600
638 H    15.8424    9.4084    4.9800
639 O    10.5044   13.3964    2.8970
640 H    10.1004   14.1564    3.4590
641 H    11.4934   13.3124    3.0840
642 O     9.7804   15.5174    4.2330
643 H     9.6734   16.3674    3.7760
644 H     9.6144   15.8164    5.2120
645 O    13.0984   12.4404    3.8780
646 H    12.9654   12.1984    4.8170
647 H    14.1174   12.5734    3.7800
648 O    15.7974   12.4374    3.7120
649 H    16.1054   13.3554    3.5660
650 H    16.2344   12.4194    4.6360
651 O    12.5414   15.4934    5.1640
652 H    11.6364   15.3274    4.6980
653 H    12.3094   16.1414    5.8870
654 O    16.5994   15.1314    3.8260
655 H    16.0934   15.4634    4.6320
656 H    17.5624   15.1134    4.1100
657 O    18.4284   18.3274    0.4070
658 H    18.9244   17.5114    0.0670
659 H    18.3274   18.2804    1.3970
660 O    18.6134   18.1004    2.9890
661 H    19.1494   18.9464    3.1720
662 H    17.7614   18.3824    3.3730
663 O    13.8614   17.5894    3.0210
664 H    14.5404   18.0934    3.5470
665 H    13.3234   17.0134    3.6240
666 O    15.1364   15.9444    6.0350
667 H    14.9864   16.8884    6.3780
668 H    14.2834   15.5594    5.7200
669 O    14.9224   17.1784    0.6620
670 H    15.6404   16.5224    0.7030
671 H    14.5734   17.1074    1.5850
672 O     9.7864   10.6794    8.5604
673 H    10.6414   10.7984    9.1034
674 H     9.4414    9.8544    8.9904
675 O     9.5734    9.1814    6.0334
676 H     9.8734    9.7084    5.2314
677 H     9.7424    9.7754    6.8214
678 O    12.1084   11.1164   10.0064
679 H    12.4614   10.4934    9.3164
680 H    12.3104   10.6454   10.8744
681 O    12.9614    9.5794    8.0604
682 H    12.7694   10.3144    7.4694
683 H    12.3024    8.8024    7.9364
684 O    16.1124    9.2304    9.2294
685 H    16.9624    8.8534    9.5384
686 H    15.3814    8.7264    9.7244
687 O    15.3064    8.5944    6.9184
688 H    14.4404    8.8984    7.3524
689 H    15.9344    8.9364    7.6554
690 O     9.3404   13.5444   10.3374
691 H     9.6374   12.8754    9.6664
692 H     9.9014   13.4234   11.2374
693 O     9.6504   12.4954    6.5184
694 H     8.7724   12.4314    6.0844
695 H     9.6424   11.7404    7.1754
696 O     9.9874   16.1564    9.5774
697 H    10.9594   16.2214    9.7874
698 H     9.7074   15.2184    9.7434
699 O     9.3504   16.5354    6.5704
700 H     9.1814   17.5324    6.4084
701 H     8.8904   16.1334    7.3384
702 O    13.9184   13.1974    9.3814
703 H    14.8054   12.7674    9.1924
704 H    13.3394   12.4744    9.7304
705 O    12.4304   12.2594    6.6854
706 H    11.5494   12.6964    6.5594
707 H    12.9044   12.8114    7.3524
708 O    16.5214   11.8854    9.0404
709 H    17.3314   12.1324    9.5394
710 H    16.3284   10.9194    9.2044
711 O    16.7154   12.4464    6.2714
712 H    16.7834   13.3854    6.6794
713 H    16.8334   11.9524    7.1014
714 O    12.7864   15.8774    9.6124
715 H    13.5874   16.4174    9.8514
716 H    13.0814   14.9704    9.4514
717 O    12.1464   16.9954    7.4004
718 H    11.1724   16.7924    7.3234
719 H    12.4414   16.4294    8.1864
720 O    16.6984   15.3154   10.9204
721 H    17.6584   15.1454   10.7074
722 H    16.5824   15.2794   11.9174
723 O    16.7514   14.6394    7.7254
724 H    16.0464   15.0934    7.1534
725 H    16.3184   14.5204    8.5964
726 O    10.2534   10.5464   13.9534
727 H     9.9024   11.4224   13.6624
728 H    11.1234   10.3454   13.4874
729 O    12.5424   10.1274   12.4964
730 H    12.9334   10.9814   12.8824
731 H    13.2314    9.3544   12.6484
732 O    15.8574    9.3304   13.8574
733 H    16.0074   10.2604   13.5154
734 H    15.8424    9.4084   14.8354
735 O    10.5044   13.3964   12.7524
736 H    10.1004   14.1564   13.3144
737 H    11.4934   13.3124   12.9394
738 O     9.7804   15.5174   14.0884
739 H     9.6734   16.3674   13.6314
740 H     9.6144   15.8164   15.0674
741 O    13.0984   12.4404   13.7334
742 H    12.9654   12.1984   14.6724
743 H    14.1174   12.5734   13.6354
744 O    15.7974   12.4374   13.5674
745 H    16.1054   13.3554   13.4214
746 H    16.2344   12.4194   14.4914
747 O    12.5414   15.4934   15.0194
748 H    11.6364   15.3274   14.5534
749 H    12.3094   16.1414   15.7424
750 O    16.5994   15.1314   13.6814
751 H    16.0934   15.4634   14.4874
752 H    17.5624   15.1134   13.9654
753 O    18.4284   18.3274   10.2624
754 H    18.9244   17.5114    9.9224
755 H    18.3274   18.2804   11.2524
756 O    18.6134   18.1004   12.8444
757 H    19.1494   18.9464   13.0274
758 H    17.7614   18.3824   13.2284
759 O    13.8614   17.5894   12.8764
760 H    14.5404   18.0934   13.4024
761 H    13.3234   17.0134   13.4794
762 O    15.1364   15.9444   15.8904
763 H    14.9864   16.8884   16.2334
764 H    14.2834   15.5594   15.5754
765 O    14.9224   17.1784   10.5174
766 H    15.6404   16.5224   10.5584
767 H    14.5734   17.1074   11.4404

             .-----------------------------------------------.  
            /|            H O H     H             H O H     H|  
           / |H     H                 H     H                |  
          /O |    H        H      HO      H        H      H  |  
         /   |   H      H O     H    H   H      H O     H    H  
        /    |H  H O H    HH    H   O H  H O H    HH    H   O|  
       / H   HH        HOH O     HO  HH        HOH O      O  |  
      /      |  HH  H O H  O  HO        HH  H O H  O  HO     |  
     /  H    HHO O   H   HH     H H  HHO O   H   HH     H H  |  
    /O      H|HH    HH H OH HOHH OOHH HH    HH H OH H HH OOH |  
   /       H |    H OO    HO H H   H      H OO    HO H H     |  
  /     H HH O HH   HH  H H   O HHHH O HH   HH  H H   O  H   |  
 * H   HH  O H  OHOH O OH  HO  HHO O H  OHOH O OH  HO    O   |  
 |      O HH |    O  OH OOHOO H O HHH     O  OH OOHOO H   H H|  
 |     H O O |HH   HH     H HH H O O  HH   HH     H HH       |  
 |      HH O |HH HHOH   HH OOH  HHHO  HH HHOH   HH OOH  O H  |  
 |           H O H   O HH O     H    H O H   O HH O     H    H  
 |  H     H  OH  HHO H    HHH   H H OOH  HHO H    HH    H   O|  
 |H  O H HO  HH  OH  H HOHHO O H HO  HH  OH  H HOH O      O  |  
 |O H        |  HHOHHOO H OOH HO        HHOHHOO H  OH HO     |  
 | H    HH   HHO O   H H HHH    HHH  HHO O   H H HH     H H  |  
 |   O  O   H|HH    HH H OO HOHHOOOHH HH    HH H OO H HH OOH |  
 |     H   H |    H OO    HO H H   H      H OO    HO H H     |  
 |     OH HH O HH   HH  H H   OOHHHH O HH   HH  H H   O  H   |  
 | H   HH  O H--OHOH-O-OH--HO--HHO-O-H--OHOH-O-OH--HO----O---.  
 |      O HH/     O  OH OO O    O HH      O  OH OO O      H /   
 |     H O O   H   HH     H HH H O O   H   HH     H HH     /    
 |      HH/   HH H OH   HH OOH  HH    HH H OH   HH OOH  O /     
 |       /   H O     O H             H O     O H         /      
 |  H   / H  O    H        HH     H  O    H        H    /       
 |H  O H  O  H   OH  H    HO O H  O  H   OH  H     O   /        
 |O H /         H OH O    O H           H OH O      H /         
 | H /   H             H   H     H             H     /          
 |  /   O                 O     O                 O /           
 | /   H                       H                   /            
 |/    O                       O                  /             
 *-----------------------------------------------*              

Unit Cell:
           Periodic     X           Y           Z      Points  Spacing
  --------------------------------------------------------------------
  1. axis:    yes   19.710746    0.000000    0.000000   112     0.1760
  2. axis:    yes    0.000000   19.710746    0.000000   112     0.1760
  3. axis:    yes    0.000000    0.000000   19.710746   112     0.1760

O-setup:
  name   : Oxygen
  id     : 9b9d51c344dea68c822856295a461509
  Z      : 8
  valence: 6
  core   : 2
  charge : 0.0
  file   : /usr/share/gpaw-setups/O.LDA.gz
  cutoffs: 0.67(comp), 1.17(filt), 0.83(core), lmax=2
  valence states:
            energy   radius
    2s(2.00) -23.752   0.688
    2p(4.00)  -9.195   0.598
    *s       3.459   0.688
    *p      18.016   0.598
    *d       0.000   0.619

Using partial waves for O as LCAO basis

H-setup:
  name   : Hydrogen
  id     : 4766778ce56282eaa64abeb28b7c1de3
  Z      : 1
  valence: 1
  core   : 0
  charge : 0.0
  file   : /usr/share/gpaw-setups/H.LDA.gz
  cutoffs: 0.48(comp), 0.85(filt), 0.53(core), lmax=2
  valence states:
            energy   radius
    1s(1.00)  -6.353   0.476
    *s      20.858   0.476
    *p       0.000   0.476

Using partial waves for H as LCAO basis

Using the LDA Exchange-Correlation Functional.
Spin-Paired Calculation
Total Charge: 0.000000
Fermi Temperature: 0.010000
Wave functions: Uniform real-space grid
Kinetic energy operator: 6*3+1=19 point O(h^6) finite-difference Laplacian
Eigensolver: <gpaw.eigensolvers.rmm_diis_old.RMM_DIIS instance at 0x2786998>
XC and Coulomb potentials evaluated on a 224*224*224 grid
Interpolation: tri-quintic (5. degree polynomial)
Poisson solver: Jacobi solver with 6 multi-grid levels
    Coarsest grid: 7 x 7 x 7 points
    Stencil: 6*3+1=19 point O(h^6) finite-difference Laplacian
    Tolerance: 2.000000e-10
    Max iterations: 1000
Reference Energy: -525354.678090

Total number of cores used: 32
Domain Decomposition: 4 x 4 x 2
MatrixOperator buffer_size: default value or 
                            see value of nblock in input file
Diagonalizer layout: BLACS 4 x 4 grid with 64 x 64 blocksize
Orthonormalizer layout: BLACS 4 x 4 grid with 64 x 64 blocksize

Symmetries present (total): 1

  ( 1  0  0)
  ( 0  1  0)
  ( 0  0  1)

1 k-point (Gamma)
1 k-point in the Irreducible Part of the Brillouin Zone

          k-points in crystal coordinates                weights
   0:     0.00000000    0.00000000    0.00000000          1/1

Mixer Type: Mixer
Linear Mixing Parameter: 0.05
Mixing with 5 Old Densities
Damping of Long Wave Oscillations: 50

Convergence Criteria:
    Total Energy Change: 0.0005 eV / electron
    Integral of Absolute Density Change: 0.0001 electrons
    Integral of Absolute Eigenstate Change: 4e-08 eV^2
Number of Atoms: 768
Number of Atomic Orbitals: 1536
Number of Bands in Calculation: 1056
Bands to Converge: Occupied States Only
Number of Valence Electrons: 2048
                     log10-error:    Total        Iterations:
           Time      WFS    Density  Energy       Fermi  Poisson
iter:   1  12:20:12  +1.68         -3608.512512    0      19     
iter:   2  12:21:36  +0.51         -4414.247701    0             
iter:   3  12:22:51  +0.02         -4455.990478    0             
iter:   4  12:24:08  -0.63  -0.75  -4364.335676    0      10     
iter:   5  12:25:33  +0.66  -0.79  -3904.282774    0      12     

Did not converge!

Here are some tips:

1) Make sure the geometry and spin-state is physically sound.
2) Use less aggressive density mixing.
3) Solve the eigenvalue problem more accurately at each scf-step.
4) Use a smoother distribution function for the occupation numbers.
5) Try adding more empty states.
6) Use enough k-points.
7) Don't let your structure optimization algorithm take too large steps.
8) Solve the Poisson equation more accurately.
9) Better initial guess for the wave functions.

See details here:

    https://wiki.fysik.dtu.dk/gpaw/documentation/convergence.html

Memory usage: 991.38 MiB
============================================================
Timing:                               incl.     excl.
============================================================
Initialization:                      72.935     4.604   0.9% |
 Hamiltonian:                         3.435     0.014   0.0% |
  Atomic:                             0.432     0.016   0.0% |
   XC Correction:                     0.416     0.416   0.1% |
  Communicate energies:               0.001     0.001   0.0% |
  Hartree integrate/restrict:         0.022     0.022   0.0% |
  Initialize Hamiltonian:             0.006     0.006   0.0% |
  Poisson:                            2.788     2.788   0.6% |
  XC 3D grid:                         0.169     0.169   0.0% |
  vbar:                               0.003     0.003   0.0% |
 LCAO initialization:                64.896     0.098   0.0% |
  LCAO eigensolver:                   6.943     0.981   0.2% |
   Blacs Orbital Layouts:             1.639     0.000   0.0% |
    General diagonalize:              1.593     1.593   0.3% |
    Redistribute coefs:               0.009     0.009   0.0% |
    Send coefs to domains:            0.037     0.037   0.0% |
   Calculate projections:             0.156     0.156   0.0% |
   Distribute overlap matrix:         1.673     0.000   0.0% |
    Scalapack redistribute:           0.014     0.014   0.0% |
    blocked summation:                1.658     1.658   0.3% |
   DistributedAtomicCorrection:       1.492     1.492   0.3% |
   Potential matrix:                  1.003     1.003   0.2% |
  LCAO to grid:                      37.441    37.441   7.6% |--|
  Set positions (LCAO WFS):          20.414     0.002   0.0% |
   Basic WFS set positions:           0.099     0.099   0.0% |
   Basis functions set positions:     0.007     0.007   0.0% |
   Scalapack redistribute:            0.036     0.036   0.0% |
   TCI: Calculate S, T, P:           19.365    19.365   3.9% |-|
   blocked summation:                 0.905     0.905   0.2% |
SCF-cycle:                          418.308     0.010   0.0% |
 Density:                             1.890     0.000   0.0% |
  Atomic density matrices:            1.198     1.198   0.2% |
  Mix:                                0.168     0.168   0.0% |
  Multipole moments:                  0.013     0.013   0.0% |
  Pseudo density:                     0.512     0.511   0.1% |
   Symmetrize density:                0.000     0.000   0.0% |
 Hamiltonian:                        13.122     0.042   0.0% |
  Atomic:                             1.293     0.046   0.0% |
   XC Correction:                     1.247     1.247   0.3% |
  Communicate energies:               0.002     0.002   0.0% |
  Hartree integrate/restrict:         0.067     0.067   0.0% |
  Poisson:                           11.018    11.018   2.2% ||
  XC 3D grid:                         0.692     0.692   0.1% |
  vbar:                               0.009     0.009   0.0% |
 Orthonormalize:                    109.554     0.000   0.0% |
  Blacs Band Layouts:                 0.154     0.000   0.0% |
   Inverse Cholesky:                  0.154     0.154   0.0% |
  calc_s_matrix:                     35.358    35.358   7.2% |--|
  projections:                       11.807    11.807   2.4% ||
  rotate_psi:                        62.235    62.235  12.7% |----|
 RMM-DIIS:                          158.617    42.032   8.6% |--|
  Apply hamiltonian:                 32.346    32.346   6.6% |--|
  precondition:                      75.669    75.669  15.4% |-----|
  projections:                        8.569     8.569   1.7% ||
 Subspace diag:                     135.114     0.000   0.0% |
  Blacs Band Layouts:                 1.321     0.000   0.0% |
   Diagonalize:                       1.320     1.320   0.3% |
   Distribute results:                0.001     0.001   0.0% |
  calc_h_matrix:                     76.936    56.700  11.5% |----|
   Apply hamiltonian:                20.235    20.235   4.1% |-|
  rotate_psi:                        56.857    56.857  11.6% |----|
Other:                                0.038     0.038   0.0% |
============================================================
Total:                                        491.281 100.0%
============================================================
date: Wed Sep 30 12:25:36 2015
